+ 0.05 1 2 cbr 1000 ------- 0 1.0 2.0 0 0
- 0.05 1 2 cbr 1000 ------- 0 1.0 2.0 0 0
+ 0.058 1 2 cbr 1000 ------- 0 1.0 2.0 1 1
- 0.058 1 2 cbr 1000 ------- 0 1.0 2.0 1 1
r 0.0608 1 2 cbr 1000 ------- 0 1.0 2.0 0 0
+ 0.066 1 2 cbr 1000 ------- 0 1.0 2.0 2 2
- 0.066 1 2 cbr 1000 ------- 0 1.0 2.0 2 2
r 0.0688 1 2 cbr 1000 ------- 0 1.0 2.0 1 1
+ 0.074 1 2 cbr 1000 ------- 0 1.0 2.0 3 3
- 0.074 1 2 cbr 1000 ------- 0 1.0 2.0 3 3
r 0.0768 1 2 cbr 1000 ------- 0 1.0 2.0 2 2
+ 0.082 1 2 cbr 1000 ------- 0 1.0 2.0 4 4
- 0.082 1 2 cbr 1000 ------- 0 1.0 2.0 4 4
r 0.0848 1 2 cbr 1000 ------- 0 1.0 2.0 3 3
+ 0.09 1 2 cbr 1000 ------- 0 1.0 2.0 5 5
- 0.09 1 2 cbr 1000 ------- 0 1.0 2.0 5 5
r 0.0928 1 2 cbr 1000 ------- 0 1.0 2.0 4 4
+ 0.098 1 2 cbr 1000 ------- 0 1.0 2.0 6 6
- 0.098 1 2 cbr 1000 ------- 0 1.0 2.0 6 6
r 0.1008 1 2 cbr 1000 ------- 0 1.0 2.0 5 5
+ 0.106 1 2 cbr 1000 ------- 0 1.0 2.0 7 7
- 0.106 1 2 cbr 1000 ------- 0 1.0 2.0 7 7
r 0.1088 1 2 cbr 1000 ------- 0 1.0 2.0 6 6
+ 0.114 1 2 cbr 1000 ------- 0 1.0 2.0 8 8
- 0.114 1 2 cbr 1000 ------- 0 1.0 2.0 8 8
r 0.1168 1 2 cbr 1000 ------- 0 1.0 2.0 7 7
+ 0.122 1 2 cbr 1000 ------- 0 1.0 2.0 9 9
- 0.122 1 2 cbr 1000 ------- 0 1.0 2.0 9 9
r 0.1248 1 2 cbr 1000 ------- 0 1.0 2.0 8 8
+ 0.13 1 2 cbr 1000 ------- 0 1.0 2.0 10 10
- 0.13 1 2 cbr 1000 ------- 0 1.0 2.0 10 10
r 0.1328 1 2 cbr 1000 ------- 0 1.0 2.0 9 9
+ 0.138 1 2 cbr 1000 ------- 0 1.0 2.0 11 11
- 0.138 1 2 cbr 1000 ------- 0 1.0 2.0 11 11
r 0.1408 1 2 cbr 1000 ------- 0 1.0 2.0 10 10
+ 0.146 1 2 cbr 1000 ------- 0 1.0 2.0 12 12
- 0.146 1 2 cbr 1000 ------- 0 1.0 2.0 12 12
r 0.1488 1 2 cbr 1000 ------- 0 1.0 2.0 11 11
+ 0.154 1 2 cbr 1000 ------- 0 1.0 2.0 13 13
- 0.154 1 2 cbr 1000 ------- 0 1.0 2.0 13 13
r 0.1568 1 2 cbr 1000 ------- 0 1.0 2.0 12 12
+ 0.162 1 2 cbr 1000 ------- 0 1.0 2.0 14 14
- 0.162 1 2 cbr 1000 ------- 0 1.0 2.0 14 14
r 0.1648 1 2 cbr 1000 ------- 0 1.0 2.0 13 13
+ 0.17 1 2 cbr 1000 ------- 0 1.0 2.0 15 15
- 0.17 1 2 cbr 1000 ------- 0 1.0 2.0 15 15
r 0.1728 1 2 cbr 1000 ------- 0 1.0 2.0 14 14
+ 0.178 1 2 cbr 1000 ------- 0 1.0 2.0 16 16
- 0.178 1 2 cbr 1000 ------- 0 1.0 2.0 16 16
r 0.1808 1 2 cbr 1000 ------- 0 1.0 2.0 15 15
+ 0.186 1 2 cbr 1000 ------- 0 1.0 2.0 17 17
- 0.186 1 2 cbr 1000 ------- 0 1.0 2.0 17 17
r 0.1888 1 2 cbr 1000 ------- 0 1.0 2.0 16 16
+ 0.194 1 2 cbr 1000 ------- 0 1.0 2.0 18 18
- 0.194 1 2 cbr 1000 ------- 0 1.0 2.0 18 18
r 0.1968 1 2 cbr 1000 ------- 0 1.0 2.0 17 17
+ 0.202 1 2 cbr 1000 ------- 0 1.0 2.0 19 19
- 0.202 1 2 cbr 1000 ------- 0 1.0 2.0 19 19
r 0.2048 1 2 cbr 1000 ------- 0 1.0 2.0 18 18
+ 0.21 1 2 cbr 1000 ------- 0 1.0 2.0 20 20
- 0.21 1 2 cbr 1000 ------- 0 1.0 2.0 20 20
r 0.2128 1 2 cbr 1000 ------- 0 1.0 2.0 19 19
+ 0.218 1 2 cbr 1000 ------- 0 1.0 2.0 21 21
- 0.218 1 2 cbr 1000 ------- 0 1.0 2.0 21 21
r 0.2208 1 2 cbr 1000 ------- 0 1.0 2.0 20 20
+ 0.226 1 2 cbr 1000 ------- 0 1.0 2.0 22 22
- 0.226 1 2 cbr 1000 ------- 0 1.0 2.0 22 22
r 0.2288 1 2 cbr 1000 ------- 0 1.0 2.0 21 21
+ 0.234 1 2 cbr 1000 ------- 0 1.0 2.0 23 23
- 0.234 1 2 cbr 1000 ------- 0 1.0 2.0 23 23
r 0.2368 1 2 cbr 1000 ------- 0 1.0 2.0 22 22
+ 0.242 1 2 cbr 1000 ------- 0 1.0 2.0 24 24
- 0.242 1 2 cbr 1000 ------- 0 1.0 2.0 24 24
r 0.2448 1 2 cbr 1000 ------- 0 1.0 2.0 23 23
+ 0.25 1 2 cbr 1000 ------- 0 1.0 2.0 25 25
- 0.25 1 2 cbr 1000 ------- 0 1.0 2.0 25 25
r 0.2528 1 2 cbr 1000 ------- 0 1.0 2.0 24 24
+ 0.258 1 2 cbr 1000 ------- 0 1.0 2.0 26 26
- 0.258 1 2 cbr 1000 ------- 0 1.0 2.0 26 26
r 0.2608 1 2 cbr 1000 ------- 0 1.0 2.0 25 25
+ 0.266 1 2 cbr 1000 ------- 0 1.0 2.0 27 27
- 0.266 1 2 cbr 1000 ------- 0 1.0 2.0 27 27
r 0.2688 1 2 cbr 1000 ------- 0 1.0 2.0 26 26
+ 0.274 1 2 cbr 1000 ------- 0 1.0 2.0 28 28
- 0.274 1 2 cbr 1000 ------- 0 1.0 2.0 28 28
r 0.2768 1 2 cbr 1000 ------- 0 1.0 2.0 27 27
+ 0.282 1 2 cbr 1000 ------- 0 1.0 2.0 29 29
- 0.282 1 2 cbr 1000 ------- 0 1.0 2.0 29 29
r 0.2848 1 2 cbr 1000 ------- 0 1.0 2.0 28 28
+ 0.29 1 2 cbr 1000 ------- 0 1.0 2.0 30 30
- 0.29 1 2 cbr 1000 ------- 0 1.0 2.0 30 30
r 0.2928 1 2 cbr 1000 ------- 0 1.0 2.0 29 29
+ 0.298 1 2 cbr 1000 ------- 0 1.0 2.0 31 31
- 0.298 1 2 cbr 1000 ------- 0 1.0 2.0 31 31
r 0.3008 1 2 cbr 1000 ------- 0 1.0 2.0 30 30
+ 0.306 1 2 cbr 1000 ------- 0 1.0 2.0 32 32
- 0.306 1 2 cbr 1000 ------- 0 1.0 2.0 32 32
r 0.3088 1 2 cbr 1000 ------- 0 1.0 2.0 31 31
+ 0.314 1 2 cbr 1000 ------- 0 1.0 2.0 33 33
- 0.314 1 2 cbr 1000 ------- 0 1.0 2.0 33 33
r 0.3168 1 2 cbr 1000 ------- 0 1.0 2.0 32 32
+ 0.322 1 2 cbr 1000 ------- 0 1.0 2.0 34 34
- 0.322 1 2 cbr 1000 ------- 0 1.0 2.0 34 34
r 0.3248 1 2 cbr 1000 ------- 0 1.0 2.0 33 33
+ 0.33 1 2 cbr 1000 ------- 0 1.0 2.0 35 35
- 0.33 1 2 cbr 1000 ------- 0 1.0 2.0 35 35
r 0.3328 1 2 cbr 1000 ------- 0 1.0 2.0 34 34
+ 0.338 1 2 cbr 1000 ------- 0 1.0 2.0 36 36
- 0.338 1 2 cbr 1000 ------- 0 1.0 2.0 36 36
r 0.3408 1 2 cbr 1000 ------- 0 1.0 2.0 35 35
+ 0.346 1 2 cbr 1000 ------- 0 1.0 2.0 37 37
- 0.346 1 2 cbr 1000 ------- 0 1.0 2.0 37 37
r 0.3488 1 2 cbr 1000 ------- 0 1.0 2.0 36 36
+ 0.354 1 2 cbr 1000 ------- 0 1.0 2.0 38 38
- 0.354 1 2 cbr 1000 ------- 0 1.0 2.0 38 38
r 0.3568 1 2 cbr 1000 ------- 0 1.0 2.0 37 37
+ 0.362 1 2 cbr 1000 ------- 0 1.0 2.0 39 39
- 0.362 1 2 cbr 1000 ------- 0 1.0 2.0 39 39
r 0.3648 1 2 cbr 1000 ------- 0 1.0 2.0 38 38
+ 0.37 1 2 cbr 1000 ------- 0 1.0 2.0 40 40
- 0.37 1 2 cbr 1000 ------- 0 1.0 2.0 40 40
r 0.3728 1 2 cbr 1000 ------- 0 1.0 2.0 39 39
+ 0.378 1 2 cbr 1000 ------- 0 1.0 2.0 41 41
- 0.378 1 2 cbr 1000 ------- 0 1.0 2.0 41 41
r 0.3808 1 2 cbr 1000 ------- 0 1.0 2.0 40 40
+ 0.386 1 2 cbr 1000 ------- 0 1.0 2.0 42 42
- 0.386 1 2 cbr 1000 ------- 0 1.0 2.0 42 42
r 0.3888 1 2 cbr 1000 ------- 0 1.0 2.0 41 41
+ 0.394 1 2 cbr 1000 ------- 0 1.0 2.0 43 43
- 0.394 1 2 cbr 1000 ------- 0 1.0 2.0 43 43
r 0.3968 1 2 cbr 1000 ------- 0 1.0 2.0 42 42
+ 0.402 1 2 cbr 1000 ------- 0 1.0 2.0 44 44
- 0.402 1 2 cbr 1000 ------- 0 1.0 2.0 44 44
r 0.4048 1 2 cbr 1000 ------- 0 1.0 2.0 43 43
+ 0.41 1 2 cbr 1000 ------- 0 1.0 2.0 45 45
- 0.41 1 2 cbr 1000 ------- 0 1.0 2.0 45 45
r 0.4128 1 2 cbr 1000 ------- 0 1.0 2.0 44 44
+ 0.418 1 2 cbr 1000 ------- 0 1.0 2.0 46 46
- 0.418 1 2 cbr 1000 ------- 0 1.0 2.0 46 46
r 0.4208 1 2 cbr 1000 ------- 0 1.0 2.0 45 45
+ 0.426 1 2 cbr 1000 ------- 0 1.0 2.0 47 47
- 0.426 1 2 cbr 1000 ------- 0 1.0 2.0 47 47
r 0.4288 1 2 cbr 1000 ------- 0 1.0 2.0 46 46
+ 0.434 1 2 cbr 1000 ------- 0 1.0 2.0 48 48
- 0.434 1 2 cbr 1000 ------- 0 1.0 2.0 48 48
r 0.4368 1 2 cbr 1000 ------- 0 1.0 2.0 47 47
+ 0.442 1 2 cbr 1000 ------- 0 1.0 2.0 49 49
- 0.442 1 2 cbr 1000 ------- 0 1.0 2.0 49 49
r 0.4448 1 2 cbr 1000 ------- 0 1.0 2.0 48 48
+ 0.45 1 2 cbr 1000 ------- 0 1.0 2.0 50 50
- 0.45 1 2 cbr 1000 ------- 0 1.0 2.0 50 50
r 0.4528 1 2 cbr 1000 ------- 0 1.0 2.0 49 49
+ 0.458 1 2 cbr 1000 ------- 0 1.0 2.0 51 51
- 0.458 1 2 cbr 1000 ------- 0 1.0 2.0 51 51
r 0.4608 1 2 cbr 1000 ------- 0 1.0 2.0 50 50
+ 0.466 1 2 cbr 1000 ------- 0 1.0 2.0 52 52
- 0.466 1 2 cbr 1000 ------- 0 1.0 2.0 52 52
r 0.4688 1 2 cbr 1000 ------- 0 1.0 2.0 51 51
+ 0.474 1 2 cbr 1000 ------- 0 1.0 2.0 53 53
- 0.474 1 2 cbr 1000 ------- 0 1.0 2.0 53 53
r 0.4768 1 2 cbr 1000 ------- 0 1.0 2.0 52 52
+ 0.482 1 2 cbr 1000 ------- 0 1.0 2.0 54 54
- 0.482 1 2 cbr 1000 ------- 0 1.0 2.0 54 54
r 0.4848 1 2 cbr 1000 ------- 0 1.0 2.0 53 53
+ 0.49 1 2 cbr 1000 ------- 0 1.0 2.0 55 55
- 0.49 1 2 cbr 1000 ------- 0 1.0 2.0 55 55
r 0.4928 1 2 cbr 1000 ------- 0 1.0 2.0 54 54
+ 0.498 1 2 cbr 1000 ------- 0 1.0 2.0 56 56
- 0.498 1 2 cbr 1000 ------- 0 1.0 2.0 56 56
r 0.5008 1 2 cbr 1000 ------- 0 1.0 2.0 55 55
+ 0.506 1 2 cbr 1000 ------- 0 1.0 2.0 57 57
- 0.506 1 2 cbr 1000 ------- 0 1.0 2.0 57 57
r 0.5088 1 2 cbr 1000 ------- 0 1.0 2.0 56 56
+ 0.514 1 2 cbr 1000 ------- 0 1.0 2.0 58 58
- 0.514 1 2 cbr 1000 ------- 0 1.0 2.0 58 58
r 0.5168 1 2 cbr 1000 ------- 0 1.0 2.0 57 57
+ 0.522 1 2 cbr 1000 ------- 0 1.0 2.0 59 59
- 0.522 1 2 cbr 1000 ------- 0 1.0 2.0 59 59
r 0.5248 1 2 cbr 1000 ------- 0 1.0 2.0 58 58
+ 0.53 1 2 cbr 1000 ------- 0 1.0 2.0 60 60
- 0.53 1 2 cbr 1000 ------- 0 1.0 2.0 60 60
r 0.5328 1 2 cbr 1000 ------- 0 1.0 2.0 59 59
+ 0.538 1 2 cbr 1000 ------- 0 1.0 2.0 61 61
- 0.538 1 2 cbr 1000 ------- 0 1.0 2.0 61 61
r 0.5408 1 2 cbr 1000 ------- 0 1.0 2.0 60 60
+ 0.546 1 2 cbr 1000 ------- 0 1.0 2.0 62 62
- 0.546 1 2 cbr 1000 ------- 0 1.0 2.0 62 62
r 0.5488 1 2 cbr 1000 ------- 0 1.0 2.0 61 61
+ 0.554 1 2 cbr 1000 ------- 0 1.0 2.0 63 63
- 0.554 1 2 cbr 1000 ------- 0 1.0 2.0 63 63
r 0.5568 1 2 cbr 1000 ------- 0 1.0 2.0 62 62
+ 0.562 1 2 cbr 1000 ------- 0 1.0 2.0 64 64
- 0.562 1 2 cbr 1000 ------- 0 1.0 2.0 64 64
r 0.5648 1 2 cbr 1000 ------- 0 1.0 2.0 63 63
+ 0.57 1 2 cbr 1000 ------- 0 1.0 2.0 65 65
- 0.57 1 2 cbr 1000 ------- 0 1.0 2.0 65 65
r 0.5728 1 2 cbr 1000 ------- 0 1.0 2.0 64 64
+ 0.578 1 2 cbr 1000 ------- 0 1.0 2.0 66 66
- 0.578 1 2 cbr 1000 ------- 0 1.0 2.0 66 66
r 0.5808 1 2 cbr 1000 ------- 0 1.0 2.0 65 65
+ 0.586 1 2 cbr 1000 ------- 0 1.0 2.0 67 67
- 0.586 1 2 cbr 1000 ------- 0 1.0 2.0 67 67
r 0.5888 1 2 cbr 1000 ------- 0 1.0 2.0 66 66
+ 0.594 1 2 cbr 1000 ------- 0 1.0 2.0 68 68
- 0.594 1 2 cbr 1000 ------- 0 1.0 2.0 68 68
r 0.5968 1 2 cbr 1000 ------- 0 1.0 2.0 67 67
+ 0.602 1 2 cbr 1000 ------- 0 1.0 2.0 69 69
- 0.602 1 2 cbr 1000 ------- 0 1.0 2.0 69 69
r 0.6048 1 2 cbr 1000 ------- 0 1.0 2.0 68 68
+ 0.61 1 2 cbr 1000 ------- 0 1.0 2.0 70 70
- 0.61 1 2 cbr 1000 ------- 0 1.0 2.0 70 70
r 0.6128 1 2 cbr 1000 ------- 0 1.0 2.0 69 69
+ 0.618 1 2 cbr 1000 ------- 0 1.0 2.0 71 71
- 0.618 1 2 cbr 1000 ------- 0 1.0 2.0 71 71
r 0.6208 1 2 cbr 1000 ------- 0 1.0 2.0 70 70
+ 0.626 1 2 cbr 1000 ------- 0 1.0 2.0 72 72
- 0.626 1 2 cbr 1000 ------- 0 1.0 2.0 72 72
r 0.6288 1 2 cbr 1000 ------- 0 1.0 2.0 71 71
+ 0.634 1 2 cbr 1000 ------- 0 1.0 2.0 73 73
- 0.634 1 2 cbr 1000 ------- 0 1.0 2.0 73 73
r 0.6368 1 2 cbr 1000 ------- 0 1.0 2.0 72 72
+ 0.642 1 2 cbr 1000 ------- 0 1.0 2.0 74 74
- 0.642 1 2 cbr 1000 ------- 0 1.0 2.0 74 74
r 0.6448 1 2 cbr 1000 ------- 0 1.0 2.0 73 73
+ 0.65 1 2 cbr 1000 ------- 0 1.0 2.0 75 75
- 0.65 1 2 cbr 1000 ------- 0 1.0 2.0 75 75
r 0.6528 1 2 cbr 1000 ------- 0 1.0 2.0 74 74
+ 0.658 1 2 cbr 1000 ------- 0 1.0 2.0 76 76
- 0.658 1 2 cbr 1000 ------- 0 1.0 2.0 76 76
r 0.6608 1 2 cbr 1000 ------- 0 1.0 2.0 75 75
+ 0.666 1 2 cbr 1000 ------- 0 1.0 2.0 77 77
- 0.666 1 2 cbr 1000 ------- 0 1.0 2.0 77 77
r 0.6688 1 2 cbr 1000 ------- 0 1.0 2.0 76 76
+ 0.674 1 2 cbr 1000 ------- 0 1.0 2.0 78 78
- 0.674 1 2 cbr 1000 ------- 0 1.0 2.0 78 78
r 0.6768 1 2 cbr 1000 ------- 0 1.0 2.0 77 77
+ 0.682 1 2 cbr 1000 ------- 0 1.0 2.0 79 79
- 0.682 1 2 cbr 1000 ------- 0 1.0 2.0 79 79
r 0.6848 1 2 cbr 1000 ------- 0 1.0 2.0 78 78
+ 0.69 1 2 cbr 1000 ------- 0 1.0 2.0 80 80
- 0.69 1 2 cbr 1000 ------- 0 1.0 2.0 80 80
r 0.6928 1 2 cbr 1000 ------- 0 1.0 2.0 79 79
+ 0.698 1 2 cbr 1000 ------- 0 1.0 2.0 81 81
- 0.698 1 2 cbr 1000 ------- 0 1.0 2.0 81 81
r 0.7008 1 2 cbr 1000 ------- 0 1.0 2.0 80 80
+ 0.706 1 2 cbr 1000 ------- 0 1.0 2.0 82 82
- 0.706 1 2 cbr 1000 ------- 0 1.0 2.0 82 82
r 0.7088 1 2 cbr 1000 ------- 0 1.0 2.0 81 81
+ 0.714 1 2 cbr 1000 ------- 0 1.0 2.0 83 83
- 0.714 1 2 cbr 1000 ------- 0 1.0 2.0 83 83
r 0.7168 1 2 cbr 1000 ------- 0 1.0 2.0 82 82
+ 0.722 1 2 cbr 1000 ------- 0 1.0 2.0 84 84
- 0.722 1 2 cbr 1000 ------- 0 1.0 2.0 84 84
r 0.7248 1 2 cbr 1000 ------- 0 1.0 2.0 83 83
+ 0.73 1 2 cbr 1000 ------- 0 1.0 2.0 85 85
- 0.73 1 2 cbr 1000 ------- 0 1.0 2.0 85 85
r 0.7328 1 2 cbr 1000 ------- 0 1.0 2.0 84 84
+ 0.738 1 2 cbr 1000 ------- 0 1.0 2.0 86 86
- 0.738 1 2 cbr 1000 ------- 0 1.0 2.0 86 86
r 0.7408 1 2 cbr 1000 ------- 0 1.0 2.0 85 85
+ 0.746 1 2 cbr 1000 ------- 0 1.0 2.0 87 87
- 0.746 1 2 cbr 1000 ------- 0 1.0 2.0 87 87
r 0.7488 1 2 cbr 1000 ------- 0 1.0 2.0 86 86
+ 0.754 1 2 cbr 1000 ------- 0 1.0 2.0 88 88
- 0.754 1 2 cbr 1000 ------- 0 1.0 2.0 88 88
r 0.7568 1 2 cbr 1000 ------- 0 1.0 2.0 87 87
+ 0.762 1 2 cbr 1000 ------- 0 1.0 2.0 89 89
- 0.762 1 2 cbr 1000 ------- 0 1.0 2.0 89 89
r 0.7648 1 2 cbr 1000 ------- 0 1.0 2.0 88 88
+ 0.77 1 2 cbr 1000 ------- 0 1.0 2.0 90 90
- 0.77 1 2 cbr 1000 ------- 0 1.0 2.0 90 90
r 0.7728 1 2 cbr 1000 ------- 0 1.0 2.0 89 89
+ 0.778 1 2 cbr 1000 ------- 0 1.0 2.0 91 91
- 0.778 1 2 cbr 1000 ------- 0 1.0 2.0 91 91
r 0.7808 1 2 cbr 1000 ------- 0 1.0 2.0 90 90
+ 0.786 1 2 cbr 1000 ------- 0 1.0 2.0 92 92
- 0.786 1 2 cbr 1000 ------- 0 1.0 2.0 92 92
r 0.7888 1 2 cbr 1000 ------- 0 1.0 2.0 91 91
+ 0.794 1 2 cbr 1000 ------- 0 1.0 2.0 93 93
- 0.794 1 2 cbr 1000 ------- 0 1.0 2.0 93 93
r 0.7968 1 2 cbr 1000 ------- 0 1.0 2.0 92 92
+ 0.802 1 2 cbr 1000 ------- 0 1.0 2.0 94 94
- 0.802 1 2 cbr 1000 ------- 0 1.0 2.0 94 94
r 0.8048 1 2 cbr 1000 ------- 0 1.0 2.0 93 93
+ 0.81 1 2 cbr 1000 ------- 0 1.0 2.0 95 95
- 0.81 1 2 cbr 1000 ------- 0 1.0 2.0 95 95
r 0.8128 1 2 cbr 1000 ------- 0 1.0 2.0 94 94
+ 0.818 1 2 cbr 1000 ------- 0 1.0 2.0 96 96
- 0.818 1 2 cbr 1000 ------- 0 1.0 2.0 96 96
r 0.8208 1 2 cbr 1000 ------- 0 1.0 2.0 95 95
+ 0.826 1 2 cbr 1000 ------- 0 1.0 2.0 97 97
- 0.826 1 2 cbr 1000 ------- 0 1.0 2.0 97 97
r 0.8288 1 2 cbr 1000 ------- 0 1.0 2.0 96 96
+ 0.834 1 2 cbr 1000 ------- 0 1.0 2.0 98 98
- 0.834 1 2 cbr 1000 ------- 0 1.0 2.0 98 98
r 0.8368 1 2 cbr 1000 ------- 0 1.0 2.0 97 97
+ 0.842 1 2 cbr 1000 ------- 0 1.0 2.0 99 99
- 0.842 1 2 cbr 1000 ------- 0 1.0 2.0 99 99
r 0.8448 1 2 cbr 1000 ------- 0 1.0 2.0 98 98
+ 0.85 1 2 cbr 1000 ------- 0 1.0 2.0 100 100
- 0.85 1 2 cbr 1000 ------- 0 1.0 2.0 100 100
r 0.8528 1 2 cbr 1000 ------- 0 1.0 2.0 99 99
+ 0.858 1 2 cbr 1000 ------- 0 1.0 2.0 101 101
- 0.858 1 2 cbr 1000 ------- 0 1.0 2.0 101 101
r 0.8608 1 2 cbr 1000 ------- 0 1.0 2.0 100 100
+ 0.866 1 2 cbr 1000 ------- 0 1.0 2.0 102 102
- 0.866 1 2 cbr 1000 ------- 0 1.0 2.0 102 102
r 0.8688 1 2 cbr 1000 ------- 0 1.0 2.0 101 101
+ 0.874 1 2 cbr 1000 ------- 0 1.0 2.0 103 103
- 0.874 1 2 cbr 1000 ------- 0 1.0 2.0 103 103
r 0.8768 1 2 cbr 1000 ------- 0 1.0 2.0 102 102
+ 0.882 1 2 cbr 1000 ------- 0 1.0 2.0 104 104
- 0.882 1 2 cbr 1000 ------- 0 1.0 2.0 104 104
r 0.8848 1 2 cbr 1000 ------- 0 1.0 2.0 103 103
+ 0.89 1 2 cbr 1000 ------- 0 1.0 2.0 105 105
- 0.89 1 2 cbr 1000 ------- 0 1.0 2.0 105 105
r 0.8928 1 2 cbr 1000 ------- 0 1.0 2.0 104 104
+ 0.898 1 2 cbr 1000 ------- 0 1.0 2.0 106 106
- 0.898 1 2 cbr 1000 ------- 0 1.0 2.0 106 106
r 0.9008 1 2 cbr 1000 ------- 0 1.0 2.0 105 105
+ 0.906 1 2 cbr 1000 ------- 0 1.0 2.0 107 107
- 0.906 1 2 cbr 1000 ------- 0 1.0 2.0 107 107
r 0.9088 1 2 cbr 1000 ------- 0 1.0 2.0 106 106
+ 0.914 1 2 cbr 1000 ------- 0 1.0 2.0 108 108
- 0.914 1 2 cbr 1000 ------- 0 1.0 2.0 108 108
r 0.9168 1 2 cbr 1000 ------- 0 1.0 2.0 107 107
+ 0.922 1 2 cbr 1000 ------- 0 1.0 2.0 109 109
- 0.922 1 2 cbr 1000 ------- 0 1.0 2.0 109 109
r 0.9248 1 2 cbr 1000 ------- 0 1.0 2.0 108 108
+ 0.93 1 2 cbr 1000 ------- 0 1.0 2.0 110 110
- 0.93 1 2 cbr 1000 ------- 0 1.0 2.0 110 110
r 0.9328 1 2 cbr 1000 ------- 0 1.0 2.0 109 109
+ 0.938 1 2 cbr 1000 ------- 0 1.0 2.0 111 111
- 0.938 1 2 cbr 1000 ------- 0 1.0 2.0 111 111
r 0.9408 1 2 cbr 1000 ------- 0 1.0 2.0 110 110
+ 0.946 1 2 cbr 1000 ------- 0 1.0 2.0 112 112
- 0.946 1 2 cbr 1000 ------- 0 1.0 2.0 112 112
r 0.9488 1 2 cbr 1000 ------- 0 1.0 2.0 111 111
+ 0.954 1 2 cbr 1000 ------- 0 1.0 2.0 113 113
- 0.954 1 2 cbr 1000 ------- 0 1.0 2.0 113 113
r 0.9568 1 2 cbr 1000 ------- 0 1.0 2.0 112 112
+ 0.962 1 2 cbr 1000 ------- 0 1.0 2.0 114 114
- 0.962 1 2 cbr 1000 ------- 0 1.0 2.0 114 114
r 0.9648 1 2 cbr 1000 ------- 0 1.0 2.0 113 113
+ 0.97 1 2 cbr 1000 ------- 0 1.0 2.0 115 115
- 0.97 1 2 cbr 1000 ------- 0 1.0 2.0 115 115
r 0.9728 1 2 cbr 1000 ------- 0 1.0 2.0 114 114
+ 0.978 1 2 cbr 1000 ------- 0 1.0 2.0 116 116
- 0.978 1 2 cbr 1000 ------- 0 1.0 2.0 116 116
r 0.9808 1 2 cbr 1000 ------- 0 1.0 2.0 115 115
+ 0.986 1 2 cbr 1000 ------- 0 1.0 2.0 117 117
- 0.986 1 2 cbr 1000 ------- 0 1.0 2.0 117 117
r 0.9888 1 2 cbr 1000 ------- 0 1.0 2.0 116 116
+ 0.994 1 2 cbr 1000 ------- 0 1.0 2.0 118 118
- 0.994 1 2 cbr 1000 ------- 0 1.0 2.0 118 118
r 0.9968 1 2 cbr 1000 ------- 0 1.0 2.0 117 117
+ 1.002 1 2 cbr 1000 ------- 0 1.0 2.0 119 119
- 1.002 1 2 cbr 1000 ------- 0 1.0 2.0 119 119
r 1.0048 1 2 cbr 1000 ------- 0 1.0 2.0 118 118
+ 1.01 1 2 cbr 1000 ------- 0 1.0 2.0 120 120
- 1.01 1 2 cbr 1000 ------- 0 1.0 2.0 120 120
r 1.0128 1 2 cbr 1000 ------- 0 1.0 2.0 119 119
+ 1.018 1 2 cbr 1000 ------- 0 1.0 2.0 121 121
- 1.018 1 2 cbr 1000 ------- 0 1.0 2.0 121 121
r 1.0208 1 2 cbr 1000 ------- 0 1.0 2.0 120 120
+ 1.026 1 2 cbr 1000 ------- 0 1.0 2.0 122 122
- 1.026 1 2 cbr 1000 ------- 0 1.0 2.0 122 122
r 1.0288 1 2 cbr 1000 ------- 0 1.0 2.0 121 121
+ 1.034 1 2 cbr 1000 ------- 0 1.0 2.0 123 123
- 1.034 1 2 cbr 1000 ------- 0 1.0 2.0 123 123
r 1.0368 1 2 cbr 1000 ------- 0 1.0 2.0 122 122
+ 1.042 1 2 cbr 1000 ------- 0 1.0 2.0 124 124
- 1.042 1 2 cbr 1000 ------- 0 1.0 2.0 124 124
r 1.0448 1 2 cbr 1000 ------- 0 1.0 2.0 123 123
+ 1.05 1 2 cbr 1000 ------- 0 1.0 2.0 125 125
- 1.05 1 2 cbr 1000 ------- 0 1.0 2.0 125 125
r 1.0528 1 2 cbr 1000 ------- 0 1.0 2.0 124 124
+ 1.058 1 2 cbr 1000 ------- 0 1.0 2.0 126 126
- 1.058 1 2 cbr 1000 ------- 0 1.0 2.0 126 126
r 1.0608 1 2 cbr 1000 ------- 0 1.0 2.0 125 125
+ 1.066 1 2 cbr 1000 ------- 0 1.0 2.0 127 127
- 1.066 1 2 cbr 1000 ------- 0 1.0 2.0 127 127
r 1.0688 1 2 cbr 1000 ------- 0 1.0 2.0 126 126
+ 1.074 1 2 cbr 1000 ------- 0 1.0 2.0 128 128
- 1.074 1 2 cbr 1000 ------- 0 1.0 2.0 128 128
r 1.0768 1 2 cbr 1000 ------- 0 1.0 2.0 127 127
+ 1.082 1 2 cbr 1000 ------- 0 1.0 2.0 129 129
- 1.082 1 2 cbr 1000 ------- 0 1.0 2.0 129 129
r 1.0848 1 2 cbr 1000 ------- 0 1.0 2.0 128 128
+ 1.09 1 2 cbr 1000 ------- 0 1.0 2.0 130 130
- 1.09 1 2 cbr 1000 ------- 0 1.0 2.0 130 130
r 1.0928 1 2 cbr 1000 ------- 0 1.0 2.0 129 129
+ 1.098 1 2 cbr 1000 ------- 0 1.0 2.0 131 131
- 1.098 1 2 cbr 1000 ------- 0 1.0 2.0 131 131
r 1.1008 1 2 cbr 1000 ------- 0 1.0 2.0 130 130
+ 1.106 1 2 cbr 1000 ------- 0 1.0 2.0 132 132
- 1.106 1 2 cbr 1000 ------- 0 1.0 2.0 132 132
r 1.1088 1 2 cbr 1000 ------- 0 1.0 2.0 131 131
+ 1.114 1 2 cbr 1000 ------- 0 1.0 2.0 133 133
- 1.114 1 2 cbr 1000 ------- 0 1.0 2.0 133 133
r 1.1168 1 2 cbr 1000 ------- 0 1.0 2.0 132 132
+ 1.122 1 2 cbr 1000 ------- 0 1.0 2.0 134 134
- 1.122 1 2 cbr 1000 ------- 0 1.0 2.0 134 134
r 1.1248 1 2 cbr 1000 ------- 0 1.0 2.0 133 133
+ 1.13 1 2 cbr 1000 ------- 0 1.0 2.0 135 135
- 1.13 1 2 cbr 1000 ------- 0 1.0 2.0 135 135
r 1.1328 1 2 cbr 1000 ------- 0 1.0 2.0 134 134
+ 1.138 1 2 cbr 1000 ------- 0 1.0 2.0 136 136
- 1.138 1 2 cbr 1000 ------- 0 1.0 2.0 136 136
r 1.1408 1 2 cbr 1000 ------- 0 1.0 2.0 135 135
+ 1.146 1 2 cbr 1000 ------- 0 1.0 2.0 137 137
- 1.146 1 2 cbr 1000 ------- 0 1.0 2.0 137 137
r 1.1488 1 2 cbr 1000 ------- 0 1.0 2.0 136 136
+ 1.154 1 2 cbr 1000 ------- 0 1.0 2.0 138 138
- 1.154 1 2 cbr 1000 ------- 0 1.0 2.0 138 138
r 1.1568 1 2 cbr 1000 ------- 0 1.0 2.0 137 137
+ 1.162 1 2 cbr 1000 ------- 0 1.0 2.0 139 139
- 1.162 1 2 cbr 1000 ------- 0 1.0 2.0 139 139
r 1.1648 1 2 cbr 1000 ------- 0 1.0 2.0 138 138
+ 1.17 1 2 cbr 1000 ------- 0 1.0 2.0 140 140
- 1.17 1 2 cbr 1000 ------- 0 1.0 2.0 140 140
r 1.1728 1 2 cbr 1000 ------- 0 1.0 2.0 139 139
+ 1.178 1 2 cbr 1000 ------- 0 1.0 2.0 141 141
- 1.178 1 2 cbr 1000 ------- 0 1.0 2.0 141 141
r 1.1808 1 2 cbr 1000 ------- 0 1.0 2.0 140 140
+ 1.186 1 2 cbr 1000 ------- 0 1.0 2.0 142 142
- 1.186 1 2 cbr 1000 ------- 0 1.0 2.0 142 142
r 1.1888 1 2 cbr 1000 ------- 0 1.0 2.0 141 141
+ 1.194 1 2 cbr 1000 ------- 0 1.0 2.0 143 143
- 1.194 1 2 cbr 1000 ------- 0 1.0 2.0 143 143
r 1.1968 1 2 cbr 1000 ------- 0 1.0 2.0 142 142
+ 1.202 1 2 cbr 1000 ------- 0 1.0 2.0 144 144
- 1.202 1 2 cbr 1000 ------- 0 1.0 2.0 144 144
r 1.2048 1 2 cbr 1000 ------- 0 1.0 2.0 143 143
+ 1.21 1 2 cbr 1000 ------- 0 1.0 2.0 145 145
- 1.21 1 2 cbr 1000 ------- 0 1.0 2.0 145 145
r 1.2128 1 2 cbr 1000 ------- 0 1.0 2.0 144 144
+ 1.218 1 2 cbr 1000 ------- 0 1.0 2.0 146 146
- 1.218 1 2 cbr 1000 ------- 0 1.0 2.0 146 146
r 1.2208 1 2 cbr 1000 ------- 0 1.0 2.0 145 145
+ 1.226 1 2 cbr 1000 ------- 0 1.0 2.0 147 147
- 1.226 1 2 cbr 1000 ------- 0 1.0 2.0 147 147
r 1.2288 1 2 cbr 1000 ------- 0 1.0 2.0 146 146
+ 1.234 1 2 cbr 1000 ------- 0 1.0 2.0 148 148
- 1.234 1 2 cbr 1000 ------- 0 1.0 2.0 148 148
r 1.2368 1 2 cbr 1000 ------- 0 1.0 2.0 147 147
+ 1.242 1 2 cbr 1000 ------- 0 1.0 2.0 149 149
- 1.242 1 2 cbr 1000 ------- 0 1.0 2.0 149 149
r 1.2448 1 2 cbr 1000 ------- 0 1.0 2.0 148 148
+ 1.25 1 2 cbr 1000 ------- 0 1.0 2.0 150 150
- 1.25 1 2 cbr 1000 ------- 0 1.0 2.0 150 150
r 1.2528 1 2 cbr 1000 ------- 0 1.0 2.0 149 149
+ 1.258 1 2 cbr 1000 ------- 0 1.0 2.0 151 151
- 1.258 1 2 cbr 1000 ------- 0 1.0 2.0 151 151
r 1.2608 1 2 cbr 1000 ------- 0 1.0 2.0 150 150
+ 1.266 1 2 cbr 1000 ------- 0 1.0 2.0 152 152
- 1.266 1 2 cbr 1000 ------- 0 1.0 2.0 152 152
r 1.2688 1 2 cbr 1000 ------- 0 1.0 2.0 151 151
+ 1.274 1 2 cbr 1000 ------- 0 1.0 2.0 153 153
- 1.274 1 2 cbr 1000 ------- 0 1.0 2.0 153 153
r 1.2768 1 2 cbr 1000 ------- 0 1.0 2.0 152 152
+ 1.282 1 2 cbr 1000 ------- 0 1.0 2.0 154 154
- 1.282 1 2 cbr 1000 ------- 0 1.0 2.0 154 154
r 1.2848 1 2 cbr 1000 ------- 0 1.0 2.0 153 153
+ 1.29 1 2 cbr 1000 ------- 0 1.0 2.0 155 155
- 1.29 1 2 cbr 1000 ------- 0 1.0 2.0 155 155
r 1.2928 1 2 cbr 1000 ------- 0 1.0 2.0 154 154
+ 1.298 1 2 cbr 1000 ------- 0 1.0 2.0 156 156
- 1.298 1 2 cbr 1000 ------- 0 1.0 2.0 156 156
r 1.3008 1 2 cbr 1000 ------- 0 1.0 2.0 155 155
+ 1.306 1 2 cbr 1000 ------- 0 1.0 2.0 157 157
- 1.306 1 2 cbr 1000 ------- 0 1.0 2.0 157 157
r 1.3088 1 2 cbr 1000 ------- 0 1.0 2.0 156 156
+ 1.314 1 2 cbr 1000 ------- 0 1.0 2.0 158 158
- 1.314 1 2 cbr 1000 ------- 0 1.0 2.0 158 158
r 1.3168 1 2 cbr 1000 ------- 0 1.0 2.0 157 157
+ 1.322 1 2 cbr 1000 ------- 0 1.0 2.0 159 159
- 1.322 1 2 cbr 1000 ------- 0 1.0 2.0 159 159
r 1.3248 1 2 cbr 1000 ------- 0 1.0 2.0 158 158
+ 1.33 1 2 cbr 1000 ------- 0 1.0 2.0 160 160
- 1.33 1 2 cbr 1000 ------- 0 1.0 2.0 160 160
r 1.3328 1 2 cbr 1000 ------- 0 1.0 2.0 159 159
+ 1.338 1 2 cbr 1000 ------- 0 1.0 2.0 161 161
- 1.338 1 2 cbr 1000 ------- 0 1.0 2.0 161 161
r 1.3408 1 2 cbr 1000 ------- 0 1.0 2.0 160 160
+ 1.346 1 2 cbr 1000 ------- 0 1.0 2.0 162 162
- 1.346 1 2 cbr 1000 ------- 0 1.0 2.0 162 162
r 1.3488 1 2 cbr 1000 ------- 0 1.0 2.0 161 161
+ 1.354 1 2 cbr 1000 ------- 0 1.0 2.0 163 163
- 1.354 1 2 cbr 1000 ------- 0 1.0 2.0 163 163
r 1.3568 1 2 cbr 1000 ------- 0 1.0 2.0 162 162
+ 1.362 1 2 cbr 1000 ------- 0 1.0 2.0 164 164
- 1.362 1 2 cbr 1000 ------- 0 1.0 2.0 164 164
r 1.3648 1 2 cbr 1000 ------- 0 1.0 2.0 163 163
+ 1.37 1 2 cbr 1000 ------- 0 1.0 2.0 165 165
- 1.37 1 2 cbr 1000 ------- 0 1.0 2.0 165 165
r 1.3728 1 2 cbr 1000 ------- 0 1.0 2.0 164 164
+ 1.378 1 2 cbr 1000 ------- 0 1.0 2.0 166 166
- 1.378 1 2 cbr 1000 ------- 0 1.0 2.0 166 166
r 1.3808 1 2 cbr 1000 ------- 0 1.0 2.0 165 165
+ 1.386 1 2 cbr 1000 ------- 0 1.0 2.0 167 167
- 1.386 1 2 cbr 1000 ------- 0 1.0 2.0 167 167
r 1.3888 1 2 cbr 1000 ------- 0 1.0 2.0 166 166
+ 1.394 1 2 cbr 1000 ------- 0 1.0 2.0 168 168
- 1.394 1 2 cbr 1000 ------- 0 1.0 2.0 168 168
r 1.3968 1 2 cbr 1000 ------- 0 1.0 2.0 167 167
+ 1.402 1 2 cbr 1000 ------- 0 1.0 2.0 169 169
- 1.402 1 2 cbr 1000 ------- 0 1.0 2.0 169 169
r 1.4048 1 2 cbr 1000 ------- 0 1.0 2.0 168 168
+ 1.41 1 2 cbr 1000 ------- 0 1.0 2.0 170 170
- 1.41 1 2 cbr 1000 ------- 0 1.0 2.0 170 170
r 1.4128 1 2 cbr 1000 ------- 0 1.0 2.0 169 169
+ 1.418 1 2 cbr 1000 ------- 0 1.0 2.0 171 171
- 1.418 1 2 cbr 1000 ------- 0 1.0 2.0 171 171
r 1.4208 1 2 cbr 1000 ------- 0 1.0 2.0 170 170
+ 1.426 1 2 cbr 1000 ------- 0 1.0 2.0 172 172
- 1.426 1 2 cbr 1000 ------- 0 1.0 2.0 172 172
r 1.4288 1 2 cbr 1000 ------- 0 1.0 2.0 171 171
+ 1.434 1 2 cbr 1000 ------- 0 1.0 2.0 173 173
- 1.434 1 2 cbr 1000 ------- 0 1.0 2.0 173 173
r 1.4368 1 2 cbr 1000 ------- 0 1.0 2.0 172 172
+ 1.442 1 2 cbr 1000 ------- 0 1.0 2.0 174 174
- 1.442 1 2 cbr 1000 ------- 0 1.0 2.0 174 174
r 1.4448 1 2 cbr 1000 ------- 0 1.0 2.0 173 173
+ 1.45 1 2 cbr 1000 ------- 0 1.0 2.0 175 175
- 1.45 1 2 cbr 1000 ------- 0 1.0 2.0 175 175
r 1.4528 1 2 cbr 1000 ------- 0 1.0 2.0 174 174
+ 1.458 1 2 cbr 1000 ------- 0 1.0 2.0 176 176
- 1.458 1 2 cbr 1000 ------- 0 1.0 2.0 176 176
r 1.4608 1 2 cbr 1000 ------- 0 1.0 2.0 175 175
+ 1.466 1 2 cbr 1000 ------- 0 1.0 2.0 177 177
- 1.466 1 2 cbr 1000 ------- 0 1.0 2.0 177 177
r 1.4688 1 2 cbr 1000 ------- 0 1.0 2.0 176 176
+ 1.474 1 2 cbr 1000 ------- 0 1.0 2.0 178 178
- 1.474 1 2 cbr 1000 ------- 0 1.0 2.0 178 178
r 1.4768 1 2 cbr 1000 ------- 0 1.0 2.0 177 177
+ 1.482 1 2 cbr 1000 ------- 0 1.0 2.0 179 179
- 1.482 1 2 cbr 1000 ------- 0 1.0 2.0 179 179
r 1.4848 1 2 cbr 1000 ------- 0 1.0 2.0 178 178
+ 1.49 1 2 cbr 1000 ------- 0 1.0 2.0 180 180
- 1.49 1 2 cbr 1000 ------- 0 1.0 2.0 180 180
r 1.4928 1 2 cbr 1000 ------- 0 1.0 2.0 179 179
+ 1.498 1 2 cbr 1000 ------- 0 1.0 2.0 181 181
- 1.498 1 2 cbr 1000 ------- 0 1.0 2.0 181 181
r 1.5008 1 2 cbr 1000 ------- 0 1.0 2.0 180 180
+ 1.506 1 2 cbr 1000 ------- 0 1.0 2.0 182 182
- 1.506 1 2 cbr 1000 ------- 0 1.0 2.0 182 182
r 1.5088 1 2 cbr 1000 ------- 0 1.0 2.0 181 181
+ 1.514 1 2 cbr 1000 ------- 0 1.0 2.0 183 183
- 1.514 1 2 cbr 1000 ------- 0 1.0 2.0 183 183
r 1.5168 1 2 cbr 1000 ------- 0 1.0 2.0 182 182
+ 1.522 1 2 cbr 1000 ------- 0 1.0 2.0 184 184
- 1.522 1 2 cbr 1000 ------- 0 1.0 2.0 184 184
r 1.5248 1 2 cbr 1000 ------- 0 1.0 2.0 183 183
+ 1.53 1 2 cbr 1000 ------- 0 1.0 2.0 185 185
- 1.53 1 2 cbr 1000 ------- 0 1.0 2.0 185 185
r 1.5328 1 2 cbr 1000 ------- 0 1.0 2.0 184 184
+ 1.538 1 2 cbr 1000 ------- 0 1.0 2.0 186 186
- 1.538 1 2 cbr 1000 ------- 0 1.0 2.0 186 186
r 1.5408 1 2 cbr 1000 ------- 0 1.0 2.0 185 185
+ 1.546 1 2 cbr 1000 ------- 0 1.0 2.0 187 187
- 1.546 1 2 cbr 1000 ------- 0 1.0 2.0 187 187
r 1.5488 1 2 cbr 1000 ------- 0 1.0 2.0 186 186
+ 1.554 1 2 cbr 1000 ------- 0 1.0 2.0 188 188
- 1.554 1 2 cbr 1000 ------- 0 1.0 2.0 188 188
r 1.5568 1 2 cbr 1000 ------- 0 1.0 2.0 187 187
+ 1.562 1 2 cbr 1000 ------- 0 1.0 2.0 189 189
- 1.562 1 2 cbr 1000 ------- 0 1.0 2.0 189 189
r 1.5648 1 2 cbr 1000 ------- 0 1.0 2.0 188 188
+ 1.57 1 2 cbr 1000 ------- 0 1.0 2.0 190 190
- 1.57 1 2 cbr 1000 ------- 0 1.0 2.0 190 190
r 1.5728 1 2 cbr 1000 ------- 0 1.0 2.0 189 189
+ 1.578 1 2 cbr 1000 ------- 0 1.0 2.0 191 191
- 1.578 1 2 cbr 1000 ------- 0 1.0 2.0 191 191
r 1.5808 1 2 cbr 1000 ------- 0 1.0 2.0 190 190
+ 1.586 1 2 cbr 1000 ------- 0 1.0 2.0 192 192
- 1.586 1 2 cbr 1000 ------- 0 1.0 2.0 192 192
r 1.5888 1 2 cbr 1000 ------- 0 1.0 2.0 191 191
+ 1.594 1 2 cbr 1000 ------- 0 1.0 2.0 193 193
- 1.594 1 2 cbr 1000 ------- 0 1.0 2.0 193 193
r 1.5968 1 2 cbr 1000 ------- 0 1.0 2.0 192 192
+ 1.602 1 2 cbr 1000 ------- 0 1.0 2.0 194 194
- 1.602 1 2 cbr 1000 ------- 0 1.0 2.0 194 194
r 1.6048 1 2 cbr 1000 ------- 0 1.0 2.0 193 193
+ 1.61 1 2 cbr 1000 ------- 0 1.0 2.0 195 195
- 1.61 1 2 cbr 1000 ------- 0 1.0 2.0 195 195
r 1.6128 1 2 cbr 1000 ------- 0 1.0 2.0 194 194
+ 1.618 1 2 cbr 1000 ------- 0 1.0 2.0 196 196
- 1.618 1 2 cbr 1000 ------- 0 1.0 2.0 196 196
r 1.6208 1 2 cbr 1000 ------- 0 1.0 2.0 195 195
+ 1.626 1 2 cbr 1000 ------- 0 1.0 2.0 197 197
- 1.626 1 2 cbr 1000 ------- 0 1.0 2.0 197 197
r 1.6288 1 2 cbr 1000 ------- 0 1.0 2.0 196 196
+ 1.634 1 2 cbr 1000 ------- 0 1.0 2.0 198 198
- 1.634 1 2 cbr 1000 ------- 0 1.0 2.0 198 198
r 1.6368 1 2 cbr 1000 ------- 0 1.0 2.0 197 197
+ 1.642 1 2 cbr 1000 ------- 0 1.0 2.0 199 199
- 1.642 1 2 cbr 1000 ------- 0 1.0 2.0 199 199
r 1.6448 1 2 cbr 1000 ------- 0 1.0 2.0 198 198
+ 1.65 1 2 cbr 1000 ------- 0 1.0 2.0 200 200
- 1.65 1 2 cbr 1000 ------- 0 1.0 2.0 200 200
r 1.6528 1 2 cbr 1000 ------- 0 1.0 2.0 199 199
+ 1.658 1 2 cbr 1000 ------- 0 1.0 2.0 201 201
- 1.658 1 2 cbr 1000 ------- 0 1.0 2.0 201 201
r 1.6608 1 2 cbr 1000 ------- 0 1.0 2.0 200 200
+ 1.666 1 2 cbr 1000 ------- 0 1.0 2.0 202 202
- 1.666 1 2 cbr 1000 ------- 0 1.0 2.0 202 202
r 1.6688 1 2 cbr 1000 ------- 0 1.0 2.0 201 201
+ 1.674 1 2 cbr 1000 ------- 0 1.0 2.0 203 203
- 1.674 1 2 cbr 1000 ------- 0 1.0 2.0 203 203
r 1.6768 1 2 cbr 1000 ------- 0 1.0 2.0 202 202
+ 1.682 1 2 cbr 1000 ------- 0 1.0 2.0 204 204
- 1.682 1 2 cbr 1000 ------- 0 1.0 2.0 204 204
r 1.6848 1 2 cbr 1000 ------- 0 1.0 2.0 203 203
+ 1.69 1 2 cbr 1000 ------- 0 1.0 2.0 205 205
- 1.69 1 2 cbr 1000 ------- 0 1.0 2.0 205 205
r 1.6928 1 2 cbr 1000 ------- 0 1.0 2.0 204 204
+ 1.698 1 2 cbr 1000 ------- 0 1.0 2.0 206 206
- 1.698 1 2 cbr 1000 ------- 0 1.0 2.0 206 206
r 1.7008 1 2 cbr 1000 ------- 0 1.0 2.0 205 205
+ 1.706 1 2 cbr 1000 ------- 0 1.0 2.0 207 207
- 1.706 1 2 cbr 1000 ------- 0 1.0 2.0 207 207
r 1.7088 1 2 cbr 1000 ------- 0 1.0 2.0 206 206
+ 1.714 1 2 cbr 1000 ------- 0 1.0 2.0 208 208
- 1.714 1 2 cbr 1000 ------- 0 1.0 2.0 208 208
r 1.7168 1 2 cbr 1000 ------- 0 1.0 2.0 207 207
+ 1.722 1 2 cbr 1000 ------- 0 1.0 2.0 209 209
- 1.722 1 2 cbr 1000 ------- 0 1.0 2.0 209 209
r 1.7248 1 2 cbr 1000 ------- 0 1.0 2.0 208 208
+ 1.73 1 2 cbr 1000 ------- 0 1.0 2.0 210 210
- 1.73 1 2 cbr 1000 ------- 0 1.0 2.0 210 210
r 1.7328 1 2 cbr 1000 ------- 0 1.0 2.0 209 209
+ 1.738 1 2 cbr 1000 ------- 0 1.0 2.0 211 211
- 1.738 1 2 cbr 1000 ------- 0 1.0 2.0 211 211
r 1.7408 1 2 cbr 1000 ------- 0 1.0 2.0 210 210
+ 1.746 1 2 cbr 1000 ------- 0 1.0 2.0 212 212
- 1.746 1 2 cbr 1000 ------- 0 1.0 2.0 212 212
r 1.7488 1 2 cbr 1000 ------- 0 1.0 2.0 211 211
+ 1.754 1 2 cbr 1000 ------- 0 1.0 2.0 213 213
- 1.754 1 2 cbr 1000 ------- 0 1.0 2.0 213 213
r 1.7568 1 2 cbr 1000 ------- 0 1.0 2.0 212 212
+ 1.762 1 2 cbr 1000 ------- 0 1.0 2.0 214 214
- 1.762 1 2 cbr 1000 ------- 0 1.0 2.0 214 214
r 1.7648 1 2 cbr 1000 ------- 0 1.0 2.0 213 213
+ 1.77 1 2 cbr 1000 ------- 0 1.0 2.0 215 215
- 1.77 1 2 cbr 1000 ------- 0 1.0 2.0 215 215
r 1.7728 1 2 cbr 1000 ------- 0 1.0 2.0 214 214
+ 1.778 1 2 cbr 1000 ------- 0 1.0 2.0 216 216
- 1.778 1 2 cbr 1000 ------- 0 1.0 2.0 216 216